 DBCSR| Multiplication driver                                               BLAS
 DBCSR| Multrec recursion limit                                              512
 DBCSR| Multiplication stack size                                           1000
 DBCSR| Maximum elements for images                                    UNLIMITED
 DBCSR| Multiplicative factor virtual images                                   1
 DBCSR| Multiplication size stacks                                             3
 DBCSR| Number of 3D layers                                               SINGLE
 DBCSR| Use MPI memory allocation                                              T
 DBCSR| Use RMA algorithm                                                      F
 DBCSR| Use Communication thread                                               T
 DBCSR| Communication thread load                                             87


  **** **** ******  **  PROGRAM STARTED AT               2021-03-18 08:09:21.600
 ***** ** ***  *** **   PROGRAM STARTED ON                 scutum.phys.ucl.ac.uk
 **    ****   ******    PROGRAM STARTED BY                              ogziogos
 ***** **    ** ** **   PROGRAM PROCESS ID                                  3098
  **** **  *******  **  PROGRAM STARTED IN       /scratch/ogziogos/work/cp2k/TTF

 CP2K| version string:                                          CP2K version 6.1
 CP2K| source code revision number:                                    svn:18464
 CP2K| cp2kflags: libint fftw3 parallel mpi3 scalapack libderiv_max_am1=6 libint
 CP2K|            _max_am=7 max_contr=4
 CP2K| is freely available from                            https://www.cp2k.org/
 CP2K| Program compiled at                          Wed Nov 21 23:47:22 GMT 2018
 CP2K| Program compiled on                                 scutum.phys.ucl.ac.uk
 CP2K| Program compiled for                                        local-machine
 CP2K| Data directory path               /scratch/ogziogos/my_cp2k/cp2k-6.1/data
 CP2K| Input file name                                      TTF_PBE_DZVP-GTH.inp

 GLOBAL| Force Environment number                                              1
 GLOBAL| Basis set file name                                      GTH_BASIS_SETS
 GLOBAL| Potential file name                                           POTENTIAL
 GLOBAL| MM Potential file name                                     MM_POTENTIAL
 GLOBAL| Coordinate file name                                      __STD_INPUT__
 GLOBAL| Method name                                                        CP2K
 GLOBAL| Project name                                           TTF_PBE_DZVP-GTH
 GLOBAL| Preferred FFT library                                             FFTW3
 GLOBAL| Preferred diagonalization lib.                                       SL
 GLOBAL| Run type                                                         ENERGY
 GLOBAL| All-to-all communication in single precision                          F
 GLOBAL| FFTs using library dependent lengths                                  F
 GLOBAL| Global print level                                                  LOW
 GLOBAL| Total number of message passing processes                             8
 GLOBAL| Number of threads for this process                                    1
 GLOBAL| This output is from process                                           0
 GLOBAL| CPU model name :  Intel(R) Xeon(R) CPU E5-1650 v2 @ 3.50GHz

 MEMORY| system memory details [Kb]
 MEMORY|                        rank 0           min           max       average
 MEMORY| MemTotal             32722724      32722724      32722724      32722724
 MEMORY| MemFree              20429964      20429964      20429964      20429964
 MEMORY| Buffers                 10496         10496         10496         10496
 MEMORY| Cached                8503884       8503884       8503884       8503884
 MEMORY| Slab                  1739152       1739152       1739152       1739152
 MEMORY| SReclaimable          1503520       1503520       1503520       1503520
 MEMORY| MemLikelyFree        30447864      30447864      30447864      30447864


 GENERATE|  Preliminary Number of Bonds generated:                             0
 GENERATE|  Achieved consistency in connectivity generation.

 *******************************************************************************
 *******************************************************************************
 **                                                                           **
 **     #####                         ##              ##                      **
 **    ##   ##            ##          ##              ##                      **
 **   ##     ##                       ##            ######                    **
 **   ##     ##  ##   ##  ##   #####  ##  ##   ####   ##    #####    #####    **
 **   ##     ##  ##   ##  ##  ##      ## ##   ##      ##   ##   ##  ##   ##   **
 **   ##  ## ##  ##   ##  ##  ##      ####     ###    ##   ######   ######    **
 **    ##  ###   ##   ##  ##  ##      ## ##      ##   ##   ##       ##        **
 **     #######   #####   ##   #####  ##  ##  ####    ##    #####   ##        **
 **           ##                                                    ##        **
 **                                                                           **
 **                                                ... make the atoms dance   **
 **                                                                           **
 **            Copyright (C) by CP2K developers group (2000 - 2018)           **
 **                                                                           **
 *******************************************************************************


 TOTAL NUMBERS AND MAXIMUM NUMBERS

  Total number of            - Atomic kinds:                                   3
                             - Atoms:                                         14
                             - Shell sets:                                    28
                             - Shells:                                        62
                             - Primitive Cartesian functions:                 70
                             - Cartesian basis functions:                    160
                             - Spherical basis functions:                    150

  Maximum angular momentum of- Orbital basis functions:                        2
                             - Local part of the GTH pseudopotential:          2
                             - Non-local part of the GTH pseudopotential:      2


 SCF PARAMETERS         Density guess:                                    ATOMIC
                        --------------------------------------------------------
                        max_scf:                                             200
                        max_scf_history:                                       0
                        max_diis:                                              4
                        --------------------------------------------------------
                        eps_scf:                                        1.00E-06
                        eps_scf_history:                                0.00E+00
                        eps_diis:                                       1.00E-01
                        eps_eigval:                                     1.00E-05
                        --------------------------------------------------------
                        level_shift [a.u.]:                                 0.00
                        --------------------------------------------------------
                        Mixing method:                           DIRECT_P_MIXING
                        --------------------------------------------------------
                        No outer SCF

 Spin 1

 Number of electrons:                                                         26
 Number of occupied orbitals:                                                 26
 Number of molecular orbitals:                                               150

 Spin 2

 Number of electrons:                                                         26
 Number of occupied orbitals:                                                 26
 Number of molecular orbitals:                                               150

 Number of orbital functions:                                                150
 Number of independent orbital functions:                                    150

 Extrapolation method: initial_guess


 SCF WAVEFUNCTION OPTIMIZATION

  Step     Update method      Time    Convergence         Total energy    Change
  ------------------------------------------------------------------------------
     1 P_Mix/Diag. 0.40E+00    2.6     0.41394735       -77.2264626265 -7.72E+01
     2 P_Mix/Diag. 0.40E+00    2.8     0.27267591       -77.2056975099  2.08E-02
     3 P_Mix/Diag. 0.40E+00    2.8     0.15059922       -77.1954048535  1.03E-02
     4 P_Mix/Diag. 0.40E+00    2.8     0.09702874       -77.1875743551  7.83E-03
     5 DIIS/Diag.  0.20E-02    2.8     0.05890951       -77.1823310168  5.24E-03
     6 DIIS/Diag.  0.13E-02    2.8     0.00387311       -77.1739326273  8.40E-03
     7 DIIS/Diag.  0.52E-03    2.8     0.00146481       -77.1739598798 -2.73E-05
     8 DIIS/Diag.  0.52E-03    2.8     0.00075250       -77.1739578571  2.02E-06
     9 DIIS/Diag.  0.16E-03    2.8     0.00017899       -77.1739628768 -5.02E-06
    10 DIIS/Diag.  0.37E-04    2.8     0.00006400       -77.1739633126 -4.36E-07
    11 DIIS/Diag.  0.17E-04    2.8     0.00001194       -77.1739633440 -3.14E-08
    12 DIIS/Diag.  0.35E-05    2.8     0.00000723       -77.1739633468 -2.79E-09
    13 DIIS/Diag.  0.29E-05    2.8     0.00000407       -77.1739633468 -3.16E-11
    14 DIIS/Diag.  0.62E-06    2.8     0.00000095       -77.1739633470 -1.52E-10

  *** SCF run converged in    14 steps ***


  Electronic density on regular grids:        -51.9999999992        0.0000000008
  Core density on regular grids:               51.9999999952       -0.0000000048
  Total charge density on r-space grids:       -0.0000000040
  Total charge density g-space grids:          -0.0000000040

  Overlap energy of the core charge distribution:               0.00000409611330
  Self energy of the core charge distribution:               -182.37015771854135
  Core Hamiltonian energy:                                     48.67932974615888
  Hartree energy:                                              77.30258666233800
  Exchange-correlation energy:                                -20.78572613302661

  Total energy:                                               -77.17396334695776


 ALPHA MO EIGENVALUES, MO OCCUPATION NUMBERS, AND CARTESIAN MO EIGENVECTORS

                              1            2            3            4
                          -0.818012    -0.794898    -0.716298    -0.705264

                           1.000000     1.000000     1.000000     1.000000

     1     1  C  2s       -0.355121    -0.171624     0.401665     0.000003
     2     1  C  3s       -0.084064    -0.372247     0.123665    -0.000166
     3     1  C  3px      -0.012543     0.089772     0.137210    -0.004451
     4     1  C  3py      -0.000373     0.002465     0.003874     0.159397
     5     1  C  3pz      -0.000000    -0.000000     0.000001    -0.000000
     6     1  C  4px      -0.028470    -0.209211     0.029416    -0.001197
     7     1  C  4py      -0.000718    -0.005773     0.000932     0.044289
     8     1  C  4pz      -0.000000    -0.000001     0.000000    -0.000000
     9     1  C  3dx2      0.004283     0.000780    -0.002578    -0.000185
    10     1  C  3dxy      0.000058    -0.000124    -0.000032     0.005832
    11     1  C  3dxz     -0.000000    -0.000000    -0.000000    -0.000000
    12     1  C  3dy2      0.003028     0.003288    -0.001820     0.000184
    13     1  C  3dyz     -0.000000    -0.000000     0.000000    -0.000000
    14     1  C  3dz2     -0.007311    -0.004068     0.004397     0.000002

    15     2  C  2s       -0.355121     0.171624     0.401666    -0.000090
    16     2  C  3s       -0.084065     0.372247     0.123665     0.000143
    17     2  C  3px       0.012543     0.089772    -0.137211    -0.004441
    18     2  C  3py       0.000362     0.002468    -0.003839     0.159397
    19     2  C  3pz       0.000000    -0.000000    -0.000000     0.000000
    20     2  C  4px       0.028470    -0.209211    -0.029416    -0.001196
    21     2  C  4py       0.000710    -0.005765    -0.000921     0.044289
    22     2  C  4pz       0.000000    -0.000001    -0.000000    -0.000000
    23     2  C  3dx2      0.004283    -0.000780    -0.002578     0.000187
    24     2  C  3dxy      0.000057     0.000124    -0.000031    -0.005832
    25     2  C  3dxz      0.000000     0.000000    -0.000000    -0.000000
    26     2  C  3dy2      0.003028    -0.003288    -0.001820    -0.000184
    27     2  C  3dyz      0.000000    -0.000000    -0.000000     0.000000
    28     2  C  3dz2     -0.007311     0.004068     0.004397    -0.000002

    29     3  S  3s       -0.281857     0.291210     0.007499     0.419616
    30     3  S  4s       -0.040851     0.061127    -0.005303     0.037934
    31     3  S  4px      -0.007580     0.043935    -0.117754     0.030308
    32     3  S  4py       0.092448    -0.086071    -0.018717    -0.060272
    33     3  S  4pz       0.000000    -0.000000    -0.000000    -0.000000
    34     3  S  5px      -0.011063     0.027307    -0.032257     0.011107
    35     3  S  5py       0.030321    -0.038837    -0.003247    -0.021168
    36     3  S  5pz       0.000000     0.000000     0.000000    -0.000000
    37     3  S  3dx2      0.004280    -0.004884     0.003634    -0.009205
    38     3  S  3dxy      0.002313     0.005166    -0.025061     0.000074
    39     3  S  3dxz     -0.000000     0.000000    -0.000000     0.000000
    40     3  S  3dy2      0.006532    -0.005006    -0.003778     0.000570
    41     3  S  3dyz      0.000000    -0.000000    -0.000000    -0.000000
    42     3  S  3dz2     -0.010811     0.009890     0.000144     0.008635

    43     4  C  2s       -0.207240     0.293399    -0.331532     0.157405
    44     4  C  3s       -0.045838     0.061470    -0.075483     0.061721
    45     4  C  3px       0.052819    -0.060397     0.003675    -0.059913
    46     4  C  3py       0.032679    -0.050664     0.081681     0.074122
    47     4  C  3pz       0.000000    -0.000000     0.000000     0.000000
    48     4  C  4px       0.023341    -0.043419     0.012918    -0.028863
    49     4  C  4py       0.024585    -0.048604     0.040061     0.001769
    50     4  C  4pz       0.000000     0.000000     0.000000    -0.000000
    51     4  C  3dx2      0.003168    -0.002637    -0.000587    -0.003678
    52     4  C  3dxy      0.000516    -0.000300     0.000777     0.007398
    53     4  C  3dxz     -0.000000     0.000000    -0.000000     0.000000
    54     4  C  3dy2      0.000657    -0.001520     0.003711     0.001366
    55     4  C  3dyz      0.000000    -0.000000     0.000000    -0.000000
    56     4  C  3dz2     -0.003826     0.004157    -0.003124     0.002313

    57     5  C  2s       -0.207237     0.293393    -0.331372    -0.157035
    58     5  C  3s       -0.045745     0.061408    -0.075428    -0.061700
    59     5  C  3px       0.054580    -0.063158     0.008225     0.055765
    60     5  C  3py      -0.029699     0.047237    -0.081427     0.077432
    61     5  C  3pz      -0.000000     0.000000    -0.000000    -0.000000
    62     5  C  4px       0.024645    -0.046036     0.015109     0.028699
    63     5  C  4py      -0.023177     0.046051    -0.039265     0.003499
    64     5  C  4pz      -0.000000     0.000000    -0.000000    -0.000000
    65     5  C  3dx2      0.003193    -0.002652    -0.000529     0.003189
    66     5  C  3dxy     -0.000267     0.000185    -0.001182     0.007842
    67     5  C  3dxz     -0.000000     0.000000    -0.000000    -0.000000
    68     5  C  3dy2      0.000632    -0.001503     0.003648    -0.000881
    69     5  C  3dyz      0.000000     0.000000     0.000000    -0.000000
    70     5  C  3dz2     -0.003825     0.004155    -0.003119    -0.002308

    71     6  S  3s       -0.281943     0.291331     0.007706    -0.419761
    72     6  S  4s       -0.040960     0.061208    -0.005384    -0.038039
    73     6  S  4px      -0.002428     0.039074    -0.118581    -0.026812
    74     6  S  4py      -0.092748     0.088410     0.012187    -0.061896
    75     6  S  4pz       0.000000    -0.000000     0.000000     0.000000
    76     6  S  5px      -0.009302     0.025040    -0.032303    -0.009775
    77     6  S  5py      -0.030980     0.040391     0.001408    -0.021935
    78     6  S  5pz       0.000000     0.000000     0.000000     0.000000
    79     6  S  3dx2      0.004435    -0.004555     0.002002     0.009169
    80     6  S  3dxy     -0.002514    -0.005124     0.025621     0.000997
    81     6  S  3dxz     -0.000000     0.000000    -0.000000    -0.000000
    82     6  S  3dy2      0.006377    -0.005336    -0.002151    -0.000535
    83     6  S  3dyz     -0.000000     0.000000     0.000000    -0.000000
    84     6  S  3dz2     -0.010812     0.009892     0.000149    -0.008633

    85     7  S  3s       -0.281953    -0.291330     0.007784     0.419749
    86     7  S  4s       -0.040957    -0.061197    -0.005376     0.038039
    87     7  S  4px       0.002433     0.039082     0.118582    -0.026837
    88     7  S  4py       0.092750     0.088408    -0.012207    -0.061887
    89     7  S  4pz       0.000000     0.000000    -0.000000    -0.000000
    90     7  S  5px       0.009306     0.025043     0.032301    -0.009784
    91     7  S  5py       0.030977     0.040385    -0.001415    -0.021932
    92     7  S  5pz       0.000000     0.000000    -0.000000    -0.000000
    93     7  S  3dx2      0.004436     0.004555     0.002002    -0.009170
    94     7  S  3dxy     -0.002514     0.005124     0.025621    -0.001001
    95     7  S  3dxz     -0.000000    -0.000000    -0.000000     0.000000
    96     7  S  3dy2      0.006377     0.005336    -0.002153     0.000537
    97     7  S  3dyz      0.000000    -0.000000    -0.000000    -0.000000
    98     7  S  3dz2     -0.010812    -0.009891     0.000151     0.008633

    99     8  C  2s       -0.207240    -0.293394    -0.331347     0.157094
   100     8  C  3s       -0.045752    -0.061410    -0.075418     0.061712
   101     8  C  3px      -0.054579    -0.063156    -0.008209     0.055769
   102     8  C  3py       0.029701     0.047241     0.081440     0.077413
   103     8  C  3pz       0.000000     0.000000    -0.000000    -0.000000
   104     8  C  4px      -0.024648    -0.046034    -0.015102     0.028701
   105     8  C  4py       0.023183     0.046052     0.039265     0.003489
   106     8  C  4pz       0.000000     0.000000     0.000000    -0.000000
   107     8  C  3dx2      0.003193     0.002652    -0.000530    -0.003190
   108     8  C  3dxy     -0.000267    -0.000185    -0.001182    -0.007841
   109     8  C  3dxz     -0.000000     0.000000    -0.000000     0.000000
   110     8  C  3dy2      0.000632     0.001503     0.003648     0.000881
   111     8  C  3dyz      0.000000    -0.000000     0.000000    -0.000000
   112     8  C  3dz2     -0.003825    -0.004155    -0.003118     0.002308

   113     9  C  2s       -0.207237    -0.293397    -0.331558    -0.157346
   114     9  C  3s       -0.045830    -0.061468    -0.075493    -0.061710
   115     9  C  3px      -0.052820    -0.060400    -0.003691    -0.059909
   116     9  C  3py      -0.032677    -0.050660    -0.081669     0.074141
   117     9  C  3pz      -0.000000     0.000000    -0.000000    -0.000000
   118     9  C  4px      -0.023339    -0.043421    -0.012925    -0.028862
   119     9  C  4py      -0.024579    -0.048604    -0.040062     0.001779
   120     9  C  4pz       0.000000     0.000000    -0.000000    -0.000000
   121     9  C  3dx2      0.003168     0.002637    -0.000587     0.003678
   122     9  C  3dxy      0.000515     0.000300     0.000777    -0.007399
   123     9  C  3dxz      0.000000     0.000000     0.000000     0.000000
   124     9  C  3dy2      0.000657     0.001520     0.003711    -0.001366
   125     9  C  3dyz     -0.000000    -0.000000    -0.000000    -0.000000
   126     9  C  3dz2     -0.003826    -0.004157    -0.003124    -0.002312

   127    10  S  3s       -0.281846    -0.291212     0.007421    -0.419628
   128    10  S  4s       -0.040855    -0.061138    -0.005312    -0.037934
   129    10  S  4px       0.007576     0.043927     0.117755     0.030283
   130    10  S  4py      -0.092446    -0.086074     0.018697    -0.060283
   131    10  S  4pz       0.000000     0.000000    -0.000000     0.000000
   132    10  S  5px       0.011060     0.027305     0.032258     0.011098
   133    10  S  5py      -0.030324    -0.038842     0.003240    -0.021171
   134    10  S  5pz       0.000000     0.000000    -0.000000     0.000000
   135    10  S  3dx2      0.004279     0.004884     0.003634     0.009204
   136    10  S  3dxy      0.002313    -0.005165    -0.025061    -0.000070
   137    10  S  3dxz     -0.000000    -0.000000     0.000000    -0.000000
   138    10  S  3dy2      0.006532     0.005006    -0.003776    -0.000569
   139    10  S  3dyz     -0.000000    -0.000000     0.000000    -0.000000
   140    10  S  3dz2     -0.010811    -0.009890     0.000142    -0.008636

   141    11  H  1s       -0.040647    -0.065219    -0.101674     0.061274
   142    11  H  2s       -0.029378    -0.061047    -0.062483     0.040898
   143    11  H  2px       0.001222     0.001930     0.003386    -0.003627
   144    11  H  2py      -0.000419    -0.001075    -0.003107     0.000479
   145    11  H  2pz      -0.000000    -0.000000    -0.000000     0.000000

   146    12  H  1s       -0.040672    -0.065260    -0.101829    -0.061398
   147    12  H  2s       -0.029399    -0.061076    -0.062547    -0.040991
   148    12  H  2px       0.001193     0.001862     0.003205     0.003594
   149    12  H  2py       0.000485     0.001178     0.003288     0.000679
   150    12  H  2pz      -0.000000    -0.000000     0.000000     0.000000

   151    13  H  1s       -0.040646     0.065219    -0.101683    -0.061255
   152    13  H  2s       -0.029375     0.061047    -0.062490    -0.040885
   153    13  H  2px      -0.001222     0.001930    -0.003387    -0.003627
   154    13  H  2py       0.000419    -0.001074     0.003107     0.000478
   155    13  H  2pz       0.000000    -0.000000     0.000000    -0.000000

   156    14  H  1s       -0.040673     0.065261    -0.101820     0.061418
   157    14  H  2s       -0.029402     0.061075    -0.062541     0.041004
   158    14  H  2px      -0.001193     0.001862    -0.003204     0.003594
   159    14  H  2py      -0.000485     0.001178    -0.003289     0.000680
   160    14  H  2pz      -0.000000    -0.000000     0.000000    -0.000000

                              5            6            7            8
                          -0.692038    -0.652353    -0.581793    -0.533618

                           1.000000     1.000000     1.000000     1.000000

     1     1  C  2s       -0.000262    -0.244064     0.284272     0.000079
     2     1  C  3s       -0.000193     0.119349     0.052283     0.000099
     3     1  C  3px      -0.003120     0.118496     0.281792    -0.006471
     4     1  C  3py       0.109297     0.003358     0.007889     0.232122
     5     1  C  3pz      -0.000000    -0.000000     0.000000    -0.000000
     6     1  C  4px      -0.001351     0.143857     0.109791    -0.000989
     7     1  C  4py       0.049426     0.004041     0.003397     0.036035
     8     1  C  4pz      -0.000000     0.000000     0.000000    -0.000000
     9     1  C  3dx2     -0.000469     0.001251    -0.004134     0.000101
    10     1  C  3dxy      0.014740    -0.000079    -0.000308    -0.002978
    11     1  C  3dxz     -0.000000    -0.000000    -0.000000    -0.000000
    12     1  C  3dy2      0.000471     0.002897     0.002337    -0.000100
    13     1  C  3dyz     -0.000000    -0.000000    -0.000000    -0.000000
    14     1  C  3dz2     -0.000002    -0.004148     0.001797    -0.000001

    15     2  C  2s       -0.000243     0.244064     0.284272    -0.000109
    16     2  C  3s       -0.000213    -0.119349     0.052283    -0.000098
    17     2  C  3px       0.003134     0.118496    -0.281792    -0.006475
    18     2  C  3py      -0.109296     0.003367    -0.007889     0.232122
    19     2  C  3pz      -0.000000     0.000000    -0.000001     0.000000
    20     2  C  4px       0.001372     0.143857    -0.109791    -0.000985
    21     2  C  4py      -0.049425     0.004045    -0.003393     0.036035
    22     2  C  4pz       0.000000     0.000000    -0.000000     0.000000
    23     2  C  3dx2     -0.000471    -0.001251    -0.004134    -0.000100
    24     2  C  3dxy      0.014740     0.000078    -0.000308     0.002978
    25     2  C  3dxz      0.000000    -0.000000    -0.000000    -0.000000
    26     2  C  3dy2      0.000472    -0.002897     0.002337     0.000099
    27     2  C  3dyz      0.000000    -0.000000     0.000000     0.000000
    28     2  C  3dz2     -0.000001     0.004148     0.001797     0.000001

    29     3  S  3s       -0.421896     0.243770    -0.310629     0.115989
    30     3  S  4s       -0.014899     0.018839    -0.007124     0.026778
    31     3  S  4px      -0.058036    -0.077997    -0.054025    -0.216611
    32     3  S  4py       0.057110    -0.062005    -0.002473    -0.031768
    33     3  S  4pz       0.000000     0.000000    -0.000000     0.000000
    34     3  S  5px      -0.022637    -0.020107    -0.011935    -0.062784
    35     3  S  5py       0.011855    -0.026623     0.008383    -0.026915
    36     3  S  5pz       0.000000    -0.000000    -0.000000    -0.000000
    37     3  S  3dx2      0.008727     0.006260    -0.001776     0.006681
    38     3  S  3dxy     -0.003151    -0.018740    -0.007456    -0.022056
    39     3  S  3dxz     -0.000000    -0.000000    -0.000000    -0.000000
    40     3  S  3dy2     -0.000854    -0.009029     0.002038    -0.006153
    41     3  S  3dyz      0.000000     0.000000    -0.000000    -0.000000
    42     3  S  3dz2     -0.007873     0.002770    -0.000261    -0.000528

    43     4  C  2s       -0.180184    -0.326624     0.189262    -0.285683
    44     4  C  3s       -0.081375    -0.069147     0.028184    -0.110023
    45     4  C  3px       0.064380    -0.079163     0.139205    -0.025895
    46     4  C  3py      -0.085370     0.118087    -0.131742    -0.146528
    47     4  C  3pz      -0.000000     0.000000    -0.000000     0.000000
    48     4  C  4px       0.037859    -0.000711     0.027051     0.022922
    49     4  C  4py       0.001522     0.060594    -0.058245     0.012605
    50     4  C  4pz       0.000000     0.000000    -0.000000     0.000000
    51     4  C  3dx2      0.003865    -0.003983     0.003896     0.000545
    52     4  C  3dxy     -0.008152     0.000384    -0.000822    -0.001787
    53     4  C  3dxz     -0.000000     0.000000    -0.000000    -0.000000
    54     4  C  3dy2     -0.001436     0.005106    -0.003807     0.000628
    55     4  C  3dyz      0.000000     0.000000    -0.000000     0.000000
    56     4  C  3dz2     -0.002429    -0.001122    -0.000088    -0.001173

    57     5  C  2s        0.180316    -0.326659     0.189192     0.285896
    58     5  C  3s        0.081458    -0.069388     0.028654     0.110136
    59     5  C  3px      -0.059602    -0.072354     0.131550     0.033687
    60     5  C  3py      -0.088773    -0.122275     0.139293    -0.144534
    61     5  C  3pz       0.000000    -0.000000     0.000000     0.000000
    62     5  C  4px      -0.037889     0.002700     0.023683    -0.023713
    63     5  C  4py      -0.000638    -0.060708     0.060015     0.011387
    64     5  C  4pz       0.000000    -0.000000     0.000000     0.000000
    65     5  C  3dx2     -0.003326    -0.003931     0.003820    -0.000426
    66     5  C  3dxy     -0.008614    -0.001235     0.001541    -0.001773
    67     5  C  3dxz      0.000000     0.000000    -0.000000    -0.000000
    68     5  C  3dy2      0.000897     0.005051    -0.003729    -0.000746
    69     5  C  3dyz      0.000000     0.000000    -0.000000     0.000000
    70     5  C  3dz2      0.002429    -0.001120    -0.000091     0.001172

    71     6  S  3s        0.421957     0.243368    -0.310361    -0.116114
    72     6  S  4s        0.014953     0.018832    -0.007462    -0.026798
    73     6  S  4px       0.054859    -0.081347    -0.054098     0.218185
    74     6  S  4py       0.060236     0.057533    -0.000485    -0.019643
    75     6  S  4pz      -0.000000     0.000000    -0.000000    -0.000000
    76     6  S  5px       0.021879    -0.021620    -0.011228     0.064108
    77     6  S  5py       0.013244     0.025523    -0.009322    -0.023399
    78     6  S  5pz      -0.000000    -0.000000     0.000000    -0.000000
    79     6  S  3dx2     -0.008499     0.005019    -0.002243    -0.005228
    80     6  S  3dxy     -0.004078     0.020092     0.007057    -0.023195
    81     6  S  3dxz      0.000000    -0.000000    -0.000000     0.000000
    82     6  S  3dy2      0.000628    -0.007782     0.002498     0.004699
    83     6  S  3dyz      0.000000    -0.000000     0.000000     0.000000
    84     6  S  3dz2      0.007871     0.002763    -0.000255     0.000530

    85     7  S  3s        0.421943    -0.243393    -0.310362     0.116126
    86     7  S  4s        0.014953    -0.018836    -0.007467     0.026795
    87     7  S  4px      -0.054871    -0.081335     0.054107     0.218184
    88     7  S  4py      -0.060229     0.057541     0.000478    -0.019652
    89     7  S  4pz      -0.000000     0.000000     0.000000    -0.000000
    90     7  S  5px      -0.021883    -0.021612     0.011232     0.064104
    91     7  S  5py      -0.013242     0.025527     0.009322    -0.023401
    92     7  S  5pz      -0.000000     0.000000    -0.000000    -0.000000
    93     7  S  3dx2     -0.008499    -0.005020    -0.002243     0.005230
    94     7  S  3dxy     -0.004078    -0.020090     0.007059     0.023192
    95     7  S  3dxz      0.000000    -0.000000    -0.000000     0.000000
    96     7  S  3dy2      0.000629     0.007783     0.002497    -0.004700
    97     7  S  3dyz     -0.000000     0.000000     0.000000    -0.000000
    98     7  S  3dz2      0.007871    -0.002763    -0.000254    -0.000530

    99     8  C  2s        0.180338     0.326643     0.189181    -0.285898
   100     8  C  3s        0.081463     0.069382     0.028652    -0.110138
   101     8  C  3px       0.059607    -0.072367    -0.131560     0.033678
   102     8  C  3py       0.088763    -0.122277    -0.139290    -0.144535
   103     8  C  3pz      -0.000000     0.000000     0.000000    -0.000000
   104     8  C  4px       0.037891     0.002695    -0.023686    -0.023712
   105     8  C  4py       0.000631    -0.060705    -0.060013     0.011389
   106     8  C  4pz      -0.000000    -0.000000     0.000000     0.000000
   107     8  C  3dx2     -0.003326     0.003932     0.003820     0.000426
   108     8  C  3dxy     -0.008613     0.001234     0.001540     0.001773
   109     8  C  3dxz      0.000000    -0.000000    -0.000000    -0.000000
   110     8  C  3dy2      0.000897    -0.005051    -0.003729     0.000746
   111     8  C  3dyz     -0.000000    -0.000000    -0.000000     0.000000
   112     8  C  3dz2      0.002429     0.001120    -0.000092    -0.001172

   113     9  C  2s       -0.180162     0.326641     0.189274     0.285682
   114     9  C  3s       -0.081370     0.069153     0.028185     0.110022
   115     9  C  3px      -0.064376    -0.079150    -0.139195    -0.025904
   116     9  C  3py       0.085381     0.118085     0.131746    -0.146529
   117     9  C  3pz      -0.000000     0.000000    -0.000000     0.000000
   118     9  C  4px      -0.037858    -0.000706    -0.027048     0.022922
   119     9  C  4py      -0.001516     0.060597     0.058247     0.012603
   120     9  C  4pz      -0.000000    -0.000000    -0.000000    -0.000000
   121     9  C  3dx2      0.003865     0.003983     0.003896    -0.000545
   122     9  C  3dxy     -0.008152    -0.000384    -0.000823     0.001787
   123     9  C  3dxz      0.000000    -0.000000     0.000000    -0.000000
   124     9  C  3dy2     -0.001436    -0.005106    -0.003807    -0.000628
   125     9  C  3dyz     -0.000000    -0.000000    -0.000000     0.000000
   126     9  C  3dz2     -0.002429     0.001123    -0.000088     0.001173

   127    10  S  3s       -0.421909    -0.243744    -0.310627    -0.115979
   128    10  S  4s       -0.014899    -0.018834    -0.007119    -0.026780
   129    10  S  4px       0.058024    -0.078011     0.054016    -0.216614
   130    10  S  4py      -0.057117    -0.061997     0.002465    -0.031760
   131    10  S  4pz       0.000000     0.000000     0.000000     0.000000
   132    10  S  5px       0.022633    -0.020115     0.011931    -0.062788
   133    10  S  5py      -0.011858    -0.026620    -0.008383    -0.026914
   134    10  S  5pz       0.000000     0.000000    -0.000000     0.000000
   135    10  S  3dx2      0.008727    -0.006258    -0.001777    -0.006680
   136    10  S  3dxy     -0.003151     0.018742    -0.007454     0.022058
   137    10  S  3dxz     -0.000000    -0.000000     0.000000    -0.000000
   138    10  S  3dy2     -0.000853     0.009028     0.002039     0.006152
   139    10  S  3dyz     -0.000000    -0.000000    -0.000000    -0.000000
   140    10  S  3dz2     -0.007874    -0.002769    -0.000262     0.000528

   141    11  H  1s        0.073584     0.136460     0.112648    -0.226370
   142    11  H  2s        0.050096     0.087665     0.066502    -0.120956
   143    11  H  2px      -0.004347    -0.004328    -0.002602     0.008843
   144    11  H  2py       0.000657     0.005314     0.005517    -0.003959
   145    11  H  2pz       0.000000     0.000000     0.000000    -0.000000

   146    12  H  1s       -0.073580     0.136580     0.112841     0.226699
   147    12  H  2s       -0.050097     0.087642     0.066471     0.120976
   148    12  H  2px       0.004298    -0.004016    -0.002285    -0.008598
   149    12  H  2py       0.000891    -0.005541    -0.005650    -0.004433
   150    12  H  2pz       0.000000    -0.000000    -0.000000     0.000000

   151    13  H  1s        0.073576    -0.136468     0.112656     0.226367
   152    13  H  2s        0.050090    -0.087670     0.066505     0.120955
   153    13  H  2px       0.004347    -0.004329     0.002603     0.008843
   154    13  H  2py      -0.000656     0.005314    -0.005517    -0.003959
   155    13  H  2pz       0.000000    -0.000000     0.000000     0.000000

   156    14  H  1s       -0.073588    -0.136572     0.112834    -0.226700
   157    14  H  2s       -0.050103    -0.087637     0.066467    -0.120977
   158    14  H  2px      -0.004298    -0.004015     0.002284    -0.008598
   159    14  H  2py      -0.000892    -0.005542     0.005650    -0.004433
   160    14  H  2pz       0.000000     0.000000    -0.000000     0.000000

                              9           10           11           12
                          -0.504738    -0.477270    -0.460340    -0.433184

                           1.000000     1.000000     1.000000     1.000000

     1     1  C  2s       -0.000107    -0.302123    -0.031749     0.231800
     2     1  C  3s        0.000001    -0.232223     0.055780    -0.058482
     3     1  C  3px      -0.004170     0.148787     0.178009    -0.091130
     4     1  C  3py       0.150923     0.003940     0.004626    -0.002981
     5     1  C  3pz      -0.000000    -0.000000     0.000000    -0.000000
     6     1  C  4px      -0.000667    -0.146413     0.011252    -0.052521
     7     1  C  4py       0.023389    -0.004342    -0.000412    -0.001544
     8     1  C  4pz      -0.000000    -0.000000     0.000000    -0.000000
     9     1  C  3dx2     -0.000319     0.000192     0.003442     0.007346
    10     1  C  3dxy      0.010193    -0.000092     0.000254     0.000696
    11     1  C  3dxz     -0.000000    -0.000000    -0.000000     0.000000
    12     1  C  3dy2      0.000321     0.002310    -0.002248    -0.006815
    13     1  C  3dyz     -0.000000    -0.000000    -0.000000     0.000000
    14     1  C  3dz2     -0.000002    -0.002503    -0.001194    -0.000531

    15     2  C  2s       -0.000103     0.302122    -0.031750    -0.231799
    16     2  C  3s       -0.000010     0.232223     0.055779     0.058482
    17     2  C  3px       0.004176     0.148786    -0.178010    -0.091130
    18     2  C  3py      -0.150923     0.003943    -0.004636    -0.002982
    19     2  C  3pz      -0.000000     0.000000    -0.000000    -0.000000
    20     2  C  4px       0.000677    -0.146413    -0.011251    -0.052521
    21     2  C  4py      -0.023389    -0.004338     0.000411    -0.001544
    22     2  C  4pz      -0.000000    -0.000000    -0.000000    -0.000000
    23     2  C  3dx2     -0.000320    -0.000192     0.003442    -0.007346
    24     2  C  3dxy      0.010193     0.000092     0.000255    -0.000697
    25     2  C  3dxz     -0.000000     0.000000    -0.000000    -0.000000
    26     2  C  3dy2      0.000321    -0.002310    -0.002248     0.006815
    27     2  C  3dyz      0.000000     0.000000    -0.000000     0.000000
    28     2  C  3dz2     -0.000002     0.002503    -0.001194     0.000531

    29     3  S  3s       -0.211728    -0.210432     0.133034    -0.011264
    30     3  S  4s        0.000571     0.060579    -0.057788     0.024187
    31     3  S  4px       0.170534    -0.163808     0.017181     0.182922
    32     3  S  4py       0.025074    -0.187156     0.176954    -0.005604
    33     3  S  4pz      -0.000000    -0.000000     0.000000    -0.000000
    34     3  S  5px       0.046005    -0.030162     0.002338     0.064170
    35     3  S  5py       0.018470    -0.059154     0.054484    -0.005169
    36     3  S  5pz      -0.000000     0.000000     0.000000    -0.000000
    37     3  S  3dx2     -0.009783     0.014813    -0.013939    -0.002903
    38     3  S  3dxy      0.016981    -0.010680    -0.012340     0.033657
    39     3  S  3dxz      0.000000    -0.000000    -0.000000     0.000000
    40     3  S  3dy2      0.007593    -0.018282     0.016871     0.002097
    41     3  S  3dyz     -0.000000    -0.000000     0.000000    -0.000000
    42     3  S  3dz2      0.002191     0.003469    -0.002932     0.000806

    43     4  C  2s        0.292531     0.030641    -0.006339     0.019008
    44     4  C  3s        0.099543     0.013438    -0.025569     0.001784
    45     4  C  3px       0.071045     0.022135     0.173239    -0.310474
    46     4  C  3py       0.152832    -0.269284     0.277508    -0.146797
    47     4  C  3pz      -0.000000    -0.000000     0.000000     0.000000
    48     4  C  4px      -0.009993     0.000630     0.028784    -0.057388
    49     4  C  4py      -0.016076    -0.084210     0.063888    -0.038739
    50     4  C  4pz      -0.000000    -0.000000     0.000000     0.000000
    51     4  C  3dx2      0.000134     0.000885     0.000687    -0.000161
    52     4  C  3dxy     -0.002400    -0.006396     0.008217    -0.004722
    53     4  C  3dxz      0.000000    -0.000000     0.000000    -0.000000
    54     4  C  3dy2     -0.000863    -0.001182     0.000606    -0.000914
    55     4  C  3dyz      0.000000    -0.000000     0.000000    -0.000000
    56     4  C  3dz2      0.000729     0.000297    -0.001292     0.001075

    57     5  C  2s       -0.292810     0.030599    -0.005592     0.018841
    58     5  C  3s       -0.099571     0.014007    -0.026103     0.001832
    59     5  C  3px      -0.078910     0.007247     0.188409    -0.317627
    60     5  C  3py       0.147863     0.270119    -0.267856     0.129447
    61     5  C  3pz      -0.000000     0.000000    -0.000000     0.000000
    62     5  C  4px       0.011045    -0.004078     0.032394    -0.059388
    63     5  C  4py      -0.015774     0.084611    -0.062646     0.035518
    64     5  C  4pz      -0.000000     0.000000    -0.000000     0.000000
    65     5  C  3dx2      0.000018     0.000466     0.001221    -0.000473
    66     5  C  3dxy     -0.002485     0.006573    -0.008187     0.004834
    67     5  C  3dxz      0.000000    -0.000000    -0.000000     0.000000
    68     5  C  3dy2      0.000712    -0.000766     0.000076    -0.000608
    69     5  C  3dyz     -0.000000    -0.000000     0.000000    -0.000000
    70     5  C  3dz2     -0.000730     0.000300    -0.001297     0.001080

    71     6  S  3s        0.212194    -0.210460     0.132500    -0.011435
    72     6  S  4s       -0.000639     0.060354    -0.056994     0.024209
    73     6  S  4px      -0.171722    -0.174173     0.027659     0.181501
    74     6  S  4py       0.015229     0.177882    -0.175861     0.015882
    75     6  S  4pz       0.000000     0.000000    -0.000000    -0.000000
    76     6  S  5px      -0.046983    -0.033107     0.005102     0.063602
    77     6  S  5py       0.015857     0.056971    -0.053737     0.008723
    78     6  S  5pz       0.000000     0.000000     0.000000    -0.000000
    79     6  S  3dx2      0.008619     0.014024    -0.014657    -0.000736
    80     6  S  3dxy      0.018579     0.013836     0.009219    -0.033846
    81     6  S  3dxz     -0.000000    -0.000000     0.000000     0.000000
    82     6  S  3dy2     -0.006420    -0.017504     0.017592    -0.000077
    83     6  S  3dyz     -0.000000     0.000000     0.000000     0.000000
    84     6  S  3dz2     -0.002199     0.003480    -0.002934     0.000813

    85     7  S  3s        0.212199     0.210455     0.132493     0.011449
    86     7  S  4s       -0.000636    -0.060347    -0.056992    -0.024212
    87     7  S  4px       0.171712    -0.174158    -0.027643     0.181500
    88     7  S  4py      -0.015246     0.177893     0.175865     0.015871
    89     7  S  4pz      -0.000000     0.000000     0.000000    -0.000000
    90     7  S  5px       0.046977    -0.033101    -0.005098     0.063605
    91     7  S  5py      -0.015864     0.056971     0.053737     0.008719
    92     7  S  5pz      -0.000000     0.000000     0.000000    -0.000000
    93     7  S  3dx2      0.008621    -0.014026    -0.014657     0.000739
    94     7  S  3dxy      0.018577    -0.013831     0.009223     0.033846
    95     7  S  3dxz      0.000000    -0.000000     0.000000     0.000000
    96     7  S  3dy2     -0.006422     0.017505     0.017591     0.000074
    97     7  S  3dyz     -0.000000     0.000000     0.000000    -0.000000
    98     7  S  3dz2     -0.002199    -0.003480    -0.002934    -0.000813

    99     8  C  2s       -0.292813    -0.030599    -0.005588    -0.018852
   100     8  C  3s       -0.099574    -0.014008    -0.026101    -0.001837
   101     8  C  3px       0.078912     0.007264    -0.188395    -0.317609
   102     8  C  3py      -0.147866     0.270120     0.267870     0.129464
   103     8  C  3pz      -0.000000     0.000000     0.000000     0.000000
   104     8  C  4px      -0.011042    -0.004071    -0.032391    -0.059385
   105     8  C  4py       0.015774     0.084612     0.062646     0.035527
   106     8  C  4pz       0.000000     0.000000     0.000000     0.000000
   107     8  C  3dx2      0.000018    -0.000466     0.001220     0.000472
   108     8  C  3dxy     -0.002485    -0.006573    -0.008187    -0.004834
   109     8  C  3dxz      0.000000    -0.000000    -0.000000     0.000000
   110     8  C  3dy2      0.000712     0.000766     0.000077     0.000608
   111     8  C  3dyz      0.000000     0.000000     0.000000    -0.000000
   112     8  C  3dz2     -0.000730    -0.000300    -0.001297    -0.001080

   113     9  C  2s        0.292525    -0.030642    -0.006342    -0.018996
   114     9  C  3s        0.099540    -0.013438    -0.025571    -0.001779
   115     9  C  3px      -0.071043     0.022117    -0.173254    -0.310493
   116     9  C  3py      -0.152827    -0.269287    -0.277492    -0.146781
   117     9  C  3pz      -0.000000     0.000000     0.000000    -0.000000
   118     9  C  4px       0.009997     0.000624    -0.028788    -0.057392
   119     9  C  4py       0.016077    -0.084211    -0.063887    -0.038730
   120     9  C  4pz      -0.000000     0.000000     0.000000    -0.000000
   121     9  C  3dx2      0.000133    -0.000884     0.000687     0.000161
   122     9  C  3dxy     -0.002400     0.006396     0.008217     0.004722
   123     9  C  3dxz     -0.000000    -0.000000    -0.000000     0.000000
   124     9  C  3dy2     -0.000862     0.001181     0.000605     0.000914
   125     9  C  3dyz      0.000000     0.000000    -0.000000    -0.000000
   126     9  C  3dz2      0.000729    -0.000297    -0.001292    -0.001075

   127    10  S  3s       -0.211722     0.210438     0.133039     0.011249
   128    10  S  4s        0.000574    -0.060586    -0.057789    -0.024184
   129    10  S  4px      -0.170543    -0.163824    -0.017196     0.182923
   130    10  S  4py      -0.025058    -0.187147    -0.176950    -0.005614
   131    10  S  4pz       0.000000     0.000000     0.000000    -0.000000
   132    10  S  5px      -0.046011    -0.030169    -0.002341     0.064167
   133    10  S  5py      -0.018464    -0.059154    -0.054483    -0.005172
   134    10  S  5pz       0.000000     0.000000     0.000000    -0.000000
   135    10  S  3dx2     -0.009781    -0.014812    -0.013939     0.002899
   136    10  S  3dxy      0.016983     0.010685    -0.012337    -0.033658
   137    10  S  3dxz     -0.000000    -0.000000     0.000000     0.000000
   138    10  S  3dy2      0.007591     0.018281     0.016872    -0.002094
   139    10  S  3dyz     -0.000000    -0.000000    -0.000000     0.000000
   140    10  S  3dz2      0.002191    -0.003470    -0.002932    -0.000805

   141    11  H  1s       -0.272271     0.095752     0.248847     0.284411
   142    11  H  2s       -0.138635     0.031361     0.112719     0.115632
   143    11  H  2px       0.009311    -0.005505    -0.008537    -0.006847
   144    11  H  2py      -0.004841    -0.001978     0.002628     0.005992
   145    11  H  2pz      -0.000000    -0.000000     0.000000     0.000000

   146    12  H  1s        0.272923     0.095833     0.248356     0.284895
   147    12  H  2s        0.138719     0.031439     0.112447     0.115661
   148    12  H  2px      -0.009024    -0.005594    -0.008324    -0.006465
   149    12  H  2py      -0.005337     0.001676    -0.003071    -0.006353
   150    12  H  2pz       0.000000    -0.000000    -0.000000     0.000000

   151    13  H  1s       -0.272261    -0.095748     0.248841    -0.284427
   152    13  H  2s       -0.138631    -0.031359     0.112716    -0.115640
   153    13  H  2px      -0.009311    -0.005505     0.008537    -0.006848
   154    13  H  2py       0.004840    -0.001979    -0.002627     0.005992
   155    13  H  2pz      -0.000000    -0.000000     0.000000    -0.000000

   156    14  H  1s        0.272935    -0.095834     0.248363    -0.284879
   157    14  H  2s        0.138723    -0.031440     0.112450    -0.115653
   158    14  H  2px       0.009024    -0.005594     0.008324    -0.006464
   159    14  H  2py       0.005338     0.001675     0.003072    -0.006353
   160    14  H  2pz      -0.000000     0.000000    -0.000000     0.000000

                             13           14           15           16
                          -0.386988    -0.379629    -0.362350    -0.357538

                           1.000000     1.000000     1.000000     1.000000

     1     1  C  2s        0.000134    -0.067496    -0.000001     0.133609
     2     1  C  3s       -0.000024    -0.021984    -0.000003    -0.114894
     3     1  C  3px      -0.008765    -0.414026     0.000002    -0.291149
     4     1  C  3py       0.314822    -0.011602     0.000000    -0.008192
     5     1  C  3pz      -0.000000     0.000000     0.374828     0.000001
     6     1  C  4px      -0.001189    -0.118075    -0.000002    -0.017470
     7     1  C  4py       0.030930    -0.003188    -0.000000     0.000225
     8     1  C  4pz      -0.000000     0.000000     0.053912     0.000000
     9     1  C  3dx2      0.000340     0.008849     0.000000    -0.004271
    10     1  C  3dxy     -0.010208     0.000866     0.000000    -0.000386
    11     1  C  3dxz      0.000000     0.000000    -0.000668     0.000000
    12     1  C  3dy2     -0.000336    -0.009242     0.000000     0.003749
    13     1  C  3dyz     -0.000000     0.000000    -0.000022    -0.000000
    14     1  C  3dz2     -0.000004     0.000392    -0.000000     0.000522

    15     2  C  2s       -0.000155    -0.067496    -0.000000     0.133609
    16     2  C  3s        0.000029    -0.021985     0.000004    -0.114894
    17     2  C  3px      -0.008758     0.414026    -0.000003     0.291148
    18     2  C  3py       0.314822     0.011584    -0.000000     0.008236
    19     2  C  3pz      -0.000000     0.000002     0.374828     0.000003
    20     2  C  4px      -0.001181     0.118076    -0.000003     0.017471
    21     2  C  4py       0.030931     0.003184    -0.000000    -0.000222
    22     2  C  4pz      -0.000000     0.000000     0.053912     0.000000
    23     2  C  3dx2     -0.000339     0.008849    -0.000000    -0.004271
    24     2  C  3dxy      0.010208     0.000867     0.000000    -0.000386
    25     2  C  3dxz      0.000000     0.000000     0.000668     0.000000
    26     2  C  3dy2      0.000335    -0.009242    -0.000000     0.003749
    27     2  C  3dyz      0.000000     0.000000     0.000021    -0.000000
    28     2  C  3dz2      0.000004     0.000392     0.000000     0.000522

    29     3  S  3s       -0.150152     0.074241     0.000000    -0.160802
    30     3  S  4s        0.064415    -0.051462     0.000000     0.110920
    31     3  S  4px      -0.232548    -0.299781     0.000001     0.096090
    32     3  S  4py      -0.111792    -0.033521     0.000001    -0.275185
    33     3  S  4pz      -0.000000     0.000001     0.282345     0.000002
    34     3  S  5px      -0.052770    -0.070723     0.000001    -0.002371
    35     3  S  5py      -0.031342    -0.003406     0.000000    -0.071064
    36     3  S  5pz      -0.000000     0.000000     0.041416     0.000000
    37     3  S  3dx2     -0.005032     0.016094    -0.000000     0.005533
    38     3  S  3dxy     -0.025380    -0.019754     0.000000    -0.010216
    39     3  S  3dxz     -0.000000     0.000000     0.000370    -0.000000
    40     3  S  3dy2     -0.000461    -0.013247     0.000000    -0.012133
    41     3  S  3dyz     -0.000000     0.000000     0.029982     0.000000
    42     3  S  3dz2      0.005493    -0.002848     0.000000     0.006601

    43     4  C  2s        0.106487    -0.045164     0.000001    -0.035094
    44     4  C  3s        0.039104     0.031110    -0.000000    -0.025580
    45     4  C  3px       0.207669     0.254388    -0.000001     0.016709
    46     4  C  3py       0.058756    -0.117779    -0.000001     0.277582
    47     4  C  3pz      -0.000001     0.000000     0.193692     0.000002
    48     4  C  4px       0.024883     0.047599    -0.000000     0.008288
    49     4  C  4py      -0.028584    -0.013913    -0.000000     0.073384
    50     4  C  4pz      -0.000000     0.000000     0.028619     0.000000
    51     4  C  3dx2     -0.000021     0.000391     0.000000    -0.006582
    52     4  C  3dxy     -0.016258     0.000245     0.000000    -0.003941
    53     4  C  3dxz     -0.000000     0.000000     0.008849     0.000000
    54     4  C  3dy2      0.000682     0.000113    -0.000000     0.004993
    55     4  C  3dyz      0.000000     0.000000     0.003903     0.000000
    56     4  C  3dz2     -0.000661    -0.000503    -0.000000     0.001589

    57     5  C  2s       -0.106578    -0.045005     0.000000    -0.034817
    58     5  C  3s       -0.038936     0.030983     0.000000    -0.024603
    59     5  C  3px      -0.211449     0.247346    -0.000001     0.031412
    60     5  C  3py       0.047587     0.131611     0.000001    -0.276333
    61     5  C  3pz      -0.000000     0.000001     0.193689     0.000002
    62     5  C  4px      -0.023298     0.046928    -0.000001     0.011839
    63     5  C  4py      -0.029965     0.016605     0.000001    -0.072169
    64     5  C  4pz      -0.000000     0.000000     0.028690     0.000000
    65     5  C  3dx2      0.001050     0.000410     0.000000    -0.006805
    66     5  C  3dxy     -0.016053    -0.000234    -0.000000     0.002736
    67     5  C  3dxz      0.000000     0.000000     0.009058     0.000000
    68     5  C  3dy2     -0.001716     0.000094    -0.000000     0.005221
    69     5  C  3dyz      0.000000    -0.000000    -0.003405    -0.000000
    70     5  C  3dz2      0.000667    -0.000503    -0.000000     0.001584

    71     6  S  3s        0.149920     0.074108     0.000001    -0.160950
    72     6  S  4s       -0.064043    -0.051375    -0.000000     0.110085
    73     6  S  4px       0.238719    -0.300925     0.000001     0.081500
    74     6  S  4py      -0.098414     0.016844    -0.000002     0.280516
    75     6  S  4pz      -0.000000     0.000002     0.282421     0.000002
    76     6  S  5px       0.054400    -0.070545     0.000000    -0.005774
    77     6  S  5py      -0.027927    -0.000488    -0.000000     0.070051
    78     6  S  5pz      -0.000000     0.000000     0.041362     0.000000
    79     6  S  3dx2      0.006657     0.014732    -0.000000     0.004803
    80     6  S  3dxy     -0.024867     0.022434    -0.000000     0.011782
    81     6  S  3dxz      0.000000    -0.000000     0.002034     0.000000
    82     6  S  3dy2     -0.001167    -0.011888     0.000000    -0.011425
    83     6  S  3dyz      0.000000    -0.000000    -0.029920    -0.000000
    84     6  S  3dz2     -0.005490    -0.002845    -0.000000     0.006622

    85     7  S  3s       -0.149912     0.074122     0.000001    -0.160954
    86     7  S  4s        0.064037    -0.051378    -0.000001     0.110088
    87     7  S  4px       0.238737     0.300910     0.000001    -0.081515
    88     7  S  4py      -0.098424    -0.016839     0.000001    -0.280528
    89     7  S  4pz      -0.000000    -0.000000     0.282427     0.000000
    90     7  S  5px       0.054402     0.070539     0.000000     0.005775
    91     7  S  5py      -0.027928     0.000487     0.000000    -0.070055
    92     7  S  5pz      -0.000000    -0.000000     0.041362     0.000000
    93     7  S  3dx2     -0.006654     0.014734    -0.000000     0.004804
    94     7  S  3dxy      0.024868     0.022428    -0.000000     0.011782
    95     7  S  3dxz      0.000000    -0.000000    -0.002032    -0.000000
    96     7  S  3dy2      0.001165    -0.011889     0.000000    -0.011426
    97     7  S  3dyz     -0.000000    -0.000000     0.029920     0.000000
    98     7  S  3dz2      0.005490    -0.002845     0.000000     0.006622

    99     8  C  2s        0.106578    -0.045012     0.000000    -0.034815
   100     8  C  3s        0.038938     0.030980     0.000000    -0.024606
   101     8  C  3px      -0.211459    -0.247347     0.000000    -0.031393
   102     8  C  3py       0.047579    -0.131595    -0.000001     0.276336
   103     8  C  3pz       0.000000    -0.000000     0.193691     0.000000
   104     8  C  4px      -0.023303    -0.046930    -0.000000    -0.011833
   105     8  C  4py      -0.029969    -0.016603    -0.000000     0.072176
   106     8  C  4pz       0.000000    -0.000000     0.028691     0.000000
   107     8  C  3dx2     -0.001048     0.000410     0.000000    -0.006805
   108     8  C  3dxy      0.016054    -0.000234     0.000000     0.002737
   109     8  C  3dxz      0.000000     0.000000    -0.009058    -0.000000
   110     8  C  3dy2      0.001715     0.000094    -0.000000     0.005221
   111     8  C  3dyz      0.000000    -0.000000     0.003405     0.000000
   112     8  C  3dz2     -0.000667    -0.000503     0.000000     0.001584

   113     9  C  2s       -0.106488    -0.045157     0.000000    -0.035096
   114     9  C  3s       -0.039101     0.031112     0.000000    -0.025578
   115     9  C  3px       0.207658    -0.254389     0.000001    -0.016728
   116     9  C  3py       0.058763     0.117794     0.000001    -0.277581
   117     9  C  3pz       0.000000    -0.000000     0.193690     0.000000
   118     9  C  4px       0.024878    -0.047597    -0.000000    -0.008294
   119     9  C  4py      -0.028580     0.013915     0.000000    -0.073378
   120     9  C  4pz       0.000000    -0.000000     0.028618     0.000000
   121     9  C  3dx2      0.000022     0.000390     0.000000    -0.006583
   122     9  C  3dxy      0.016258     0.000244     0.000000    -0.003940
   123     9  C  3dxz     -0.000000     0.000000    -0.008850    -0.000000
   124     9  C  3dy2     -0.000683     0.000113    -0.000000     0.004994
   125     9  C  3dyz     -0.000000    -0.000000    -0.003902    -0.000000
   126     9  C  3dz2      0.000661    -0.000503    -0.000000     0.001589

   127    10  S  3s        0.150161     0.074227     0.000001    -0.160801
   128    10  S  4s       -0.064422    -0.051458    -0.000001     0.110918
   129    10  S  4px      -0.232531     0.299796    -0.000000    -0.096076
   130    10  S  4py      -0.111781     0.033527    -0.000001     0.275176
   131    10  S  4pz       0.000001    -0.000000     0.282339     0.000000
   132    10  S  5px      -0.052768     0.070729     0.000000     0.002370
   133    10  S  5py      -0.031341     0.003405    -0.000000     0.071061
   134    10  S  5pz       0.000000    -0.000000     0.041416    -0.000000
   135    10  S  3dx2      0.005034     0.016093    -0.000000     0.005532
   136    10  S  3dxy      0.025379    -0.019760     0.000000    -0.010215
   137    10  S  3dxz     -0.000000     0.000000    -0.000371    -0.000000
   138    10  S  3dy2      0.000458    -0.013246     0.000000    -0.012132
   139    10  S  3dyz     -0.000000     0.000000    -0.029982    -0.000000
   140    10  S  3dz2     -0.005493    -0.002847     0.000000     0.006600

   141    11  H  1s        0.276226     0.102990    -0.000001     0.163775
   142    11  H  2s        0.110907     0.028787    -0.000000     0.044253
   143    11  H  2px      -0.004252     0.000431     0.000000    -0.004362
   144    11  H  2py       0.005298     0.006142     0.000000    -0.002615
   145    11  H  2pz      -0.000000     0.000000    -0.004911    -0.000000

   146    12  H  1s       -0.275500     0.103051    -0.000001     0.164296
   147    12  H  2s       -0.110325     0.028792    -0.000001     0.044021
   148    12  H  2px       0.003900     0.000793     0.000000    -0.004479
   149    12  H  2py       0.005490    -0.006107    -0.000000     0.002379
   150    12  H  2pz      -0.000000     0.000000    -0.004915    -0.000000

   151    13  H  1s       -0.276228     0.103003    -0.000001     0.163771
   152    13  H  2s       -0.110909     0.028792     0.000000     0.044253
   153    13  H  2px      -0.004253    -0.000430    -0.000000     0.004361
   154    13  H  2py       0.005297    -0.006143     0.000000     0.002615
   155    13  H  2pz      -0.000000    -0.000000    -0.004911    -0.000000

   156    14  H  1s        0.275498     0.103037    -0.000001     0.164298
   157    14  H  2s        0.110325     0.028786    -0.000000     0.044020
   158    14  H  2px       0.003899    -0.000793    -0.000000     0.004479
   159    14  H  2py       0.005490     0.006107    -0.000000    -0.002379
   160    14  H  2pz       0.000000    -0.000000    -0.004915    -0.000000

                             17           18           19           20
                          -0.342378    -0.332634    -0.332577    -0.307709

                           1.000000     1.000000     1.000000     1.000000

     1     1  C  2s        0.134535    -0.000102    -0.000000     0.000305
     2     1  C  3s        0.007812    -0.000038     0.000001     0.000056
     3     1  C  3px      -0.094867     0.007637     0.000004     0.005666
     4     1  C  3py      -0.002267    -0.262992    -0.000078    -0.211537
     5     1  C  3pz      -0.000000     0.000041    -0.133709     0.000000
     6     1  C  4px       0.067761     0.001372     0.000001     0.001982
     7     1  C  4py       0.002219    -0.046288    -0.000014    -0.029274
     8     1  C  4pz       0.000000    -0.000005     0.016677     0.000000
     9     1  C  3dx2     -0.009021     0.000441     0.000000     0.000134
    10     1  C  3dxy     -0.000739    -0.013829    -0.000004    -0.004478
    11     1  C  3dxz     -0.000000     0.000005    -0.016837    -0.000000
    12     1  C  3dy2      0.006337    -0.000442    -0.000000    -0.000141
    13     1  C  3dyz     -0.000000     0.000000    -0.000464     0.000000
    14     1  C  3dz2      0.002683     0.000001     0.000000     0.000007

    15     2  C  2s       -0.134536    -0.000134     0.000000    -0.000294
    16     2  C  3s       -0.007812    -0.000029    -0.000000    -0.000060
    17     2  C  3px      -0.094866    -0.007668    -0.000004     0.005668
    18     2  C  3py      -0.002336     0.262991     0.000079    -0.211537
    19     2  C  3pz       0.000001    -0.000039     0.133709     0.000000
    20     2  C  4px       0.067761    -0.001361    -0.000000     0.001978
    21     2  C  4py       0.002213     0.046288     0.000014    -0.029274
    22     2  C  4pz       0.000000     0.000005    -0.016677    -0.000000
    23     2  C  3dx2      0.009021     0.000444     0.000000    -0.000135
    24     2  C  3dxy      0.000743    -0.013829    -0.000004     0.004478
    25     2  C  3dxz     -0.000000     0.000005    -0.016837    -0.000000
    26     2  C  3dy2     -0.006337    -0.000444    -0.000000     0.000142
    27     2  C  3dyz     -0.000000     0.000000    -0.000465    -0.000000
    28     2  C  3dz2     -0.002683     0.000000    -0.000000    -0.000007

    29     3  S  3s        0.217743     0.002224    -0.000000     0.115419
    30     3  S  4s       -0.145313    -0.032685    -0.000009    -0.102138
    31     3  S  4px      -0.201254    -0.353643    -0.000105    -0.144163
    32     3  S  4py       0.257474    -0.073393    -0.000023     0.392105
    33     3  S  4pz       0.000001    -0.000088     0.295582     0.000001
    34     3  S  5px      -0.041154    -0.077382    -0.000023    -0.006268
    35     3  S  5py       0.069310     0.000447    -0.000000     0.055976
    36     3  S  5pz       0.000000    -0.000012     0.040690     0.000000
    37     3  S  3dx2      0.006651     0.004648     0.000001     0.003897
    38     3  S  3dxy     -0.004065    -0.031113    -0.000009    -0.003398
    39     3  S  3dxz     -0.000000     0.000005    -0.017282    -0.000000
    40     3  S  3dy2      0.002891    -0.005127    -0.000001     0.004130
    41     3  S  3dyz      0.000000    -0.000007     0.024507     0.000000
    42     3  S  3dz2     -0.009542     0.000479     0.000000    -0.008027

    43     4  C  2s       -0.001051     0.015428     0.000005    -0.077178
    44     4  C  3s        0.055925     0.079736     0.000023     0.115595
    45     4  C  3px       0.109655     0.256118     0.000076     0.189449
    46     4  C  3py      -0.299243     0.013858     0.000004    -0.010749
    47     4  C  3pz       0.000000    -0.000094     0.314736     0.000000
    48     4  C  4px       0.008513    -0.000619     0.000000     0.001954
    49     4  C  4py      -0.062657    -0.033968    -0.000010    -0.076854
    50     4  C  4pz       0.000000    -0.000012     0.039916    -0.000000
    51     4  C  3dx2      0.006094     0.000285     0.000000     0.005937
    52     4  C  3dxy      0.005578    -0.019722    -0.000006    -0.011330
    53     4  C  3dxz      0.000000    -0.000003     0.010696     0.000000
    54     4  C  3dy2     -0.004418     0.000812     0.000000    -0.005174
    55     4  C  3dyz     -0.000000    -0.000002     0.006662     0.000000
    56     4  C  3dz2     -0.001676    -0.001097    -0.000000    -0.000763

    57     5  C  2s       -0.001387    -0.015471    -0.000005     0.077116
    58     5  C  3s        0.055163    -0.079488    -0.000024    -0.115389
    59     5  C  3px       0.093413    -0.256887    -0.000077    -0.188415
    60     5  C  3py       0.304959     0.000458    -0.000000    -0.020347
    61     5  C  3pz       0.000001    -0.000094     0.314724     0.000000
    62     5  C  4px       0.005415     0.002494     0.000000     0.002165
    63     5  C  4py       0.062420    -0.033795    -0.000010    -0.076443
    64     5  C  4pz       0.000000    -0.000012     0.040016    -0.000000
    65     5  C  3dx2      0.006437     0.000982     0.000000    -0.005169
    66     5  C  3dxy     -0.004481    -0.019532    -0.000006    -0.012332
    67     5  C  3dxz      0.000000    -0.000003     0.011059     0.000000
    68     5  C  3dy2     -0.004763    -0.002080    -0.000001     0.004404
    69     5  C  3dyz     -0.000000     0.000002    -0.006057    -0.000000
    70     5  C  3dz2     -0.001674     0.001097     0.000000     0.000765

    71     6  S  3s        0.218035    -0.001927    -0.000001    -0.114548
    72     6  S  4s       -0.145110     0.032520     0.000009     0.100692
    73     6  S  4px      -0.187093     0.357111     0.000108     0.121731
    74     6  S  4py      -0.269338    -0.054179    -0.000017     0.398574
    75     6  S  4pz       0.000001    -0.000088     0.295701    -0.000000
    76     6  S  5px      -0.037648     0.077184     0.000023     0.003437
    77     6  S  5py      -0.070974     0.004775     0.000001     0.054794
    78     6  S  5pz       0.000000    -0.000012     0.040635    -0.000000
    79     6  S  3dx2      0.006394    -0.002622    -0.000001    -0.003655
    80     6  S  3dxy      0.004404    -0.031912    -0.000010    -0.003351
    81     6  S  3dxz     -0.000000     0.000005    -0.015894     0.000000
    82     6  S  3dy2      0.003177     0.003117     0.000001    -0.004350
    83     6  S  3dyz     -0.000000     0.000008    -0.025433    -0.000000
    84     6  S  3dz2     -0.009572    -0.000495    -0.000000     0.008005

    85     7  S  3s       -0.218036    -0.002000    -0.000000     0.114530
    86     7  S  4s        0.145100     0.032569     0.000009    -0.100679
    87     7  S  4px      -0.187004    -0.357170    -0.000107     0.121745
    88     7  S  4py      -0.269315     0.054124     0.000018     0.398552
    89     7  S  4pz      -0.000001     0.000089    -0.295698     0.000000
    90     7  S  5px      -0.037631    -0.077199    -0.000023     0.003435
    91     7  S  5py      -0.070967    -0.004791    -0.000001     0.054790
    92     7  S  5pz      -0.000000     0.000012    -0.040634     0.000000
    93     7  S  3dx2     -0.006395    -0.002629    -0.000001     0.003654
    94     7  S  3dxy     -0.004395    -0.031915    -0.000010     0.003349
    95     7  S  3dxz     -0.000000     0.000005    -0.015896    -0.000000
    96     7  S  3dy2     -0.003177     0.003120     0.000001     0.004350
    97     7  S  3dyz     -0.000000     0.000008    -0.025432     0.000000
    98     7  S  3dz2      0.009572    -0.000492    -0.000000    -0.008004

    99     8  C  2s        0.001392    -0.015466    -0.000004    -0.077112
   100     8  C  3s       -0.055137    -0.079509    -0.000024     0.115381
   101     8  C  3px       0.093350     0.256928     0.000077    -0.188403
   102     8  C  3py       0.304953    -0.000382    -0.000001    -0.020317
   103     8  C  3pz      -0.000001     0.000094    -0.314724    -0.000000
   104     8  C  4px       0.005419    -0.002491    -0.000001     0.002159
   105     8  C  4py       0.062407     0.033813     0.000010    -0.076442
   106     8  C  4pz      -0.000000     0.000012    -0.040016    -0.000000
   107     8  C  3dx2     -0.006436     0.000979     0.000000     0.005169
   108     8  C  3dxy      0.004489    -0.019530    -0.000006     0.012331
   109     8  C  3dxz      0.000000    -0.000003     0.011059    -0.000000
   110     8  C  3dy2      0.004763    -0.002077    -0.000001    -0.004405
   111     8  C  3dyz     -0.000000     0.000002    -0.006058    -0.000000
   112     8  C  3dz2      0.001674     0.001098     0.000000    -0.000764

   113     9  C  2s        0.001047     0.015433     0.000005     0.077182
   114     9  C  3s       -0.055951     0.079716     0.000024    -0.115602
   115     9  C  3px       0.109719    -0.256072    -0.000076     0.189463
   116     9  C  3py      -0.299244    -0.013932    -0.000003    -0.010777
   117     9  C  3pz      -0.000001     0.000093    -0.314735    -0.000000
   118     9  C  4px       0.008510     0.000626     0.000000     0.001950
   119     9  C  4py      -0.062670     0.033951     0.000011    -0.076856
   120     9  C  4pz      -0.000000     0.000012    -0.039916    -0.000000
   121     9  C  3dx2     -0.006095     0.000282     0.000000    -0.005936
   122     9  C  3dxy     -0.005570    -0.019724    -0.000006     0.011331
   123     9  C  3dxz      0.000000    -0.000003     0.010697     0.000000
   124     9  C  3dy2      0.004419     0.000815     0.000000     0.005173
   125     9  C  3dyz      0.000000    -0.000002     0.006661    -0.000000
   126     9  C  3dz2      0.001676    -0.001096    -0.000000     0.000763

   127    10  S  3s       -0.217741     0.002151     0.000002    -0.115436
   128    10  S  4s        0.145322    -0.032637    -0.000010     0.102149
   129    10  S  4px      -0.201344     0.353581     0.000105    -0.144151
   130    10  S  4py       0.257490     0.073444     0.000019     0.392125
   131    10  S  4pz      -0.000001     0.000088    -0.295586    -0.000001
   132    10  S  5px      -0.041172     0.077366     0.000023    -0.006269
   133    10  S  5py       0.069315    -0.000432    -0.000001     0.055980
   134    10  S  5pz      -0.000000     0.000012    -0.040691    -0.000000
   135    10  S  3dx2     -0.006651     0.004641     0.000001    -0.003898
   136    10  S  3dxy      0.004073    -0.031111    -0.000009     0.003399
   137    10  S  3dxz     -0.000000     0.000005    -0.017280    -0.000000
   138    10  S  3dy2     -0.002891    -0.005124    -0.000001    -0.004130
   139    10  S  3dyz      0.000000    -0.000007     0.024508     0.000000
   140    10  S  3dz2      0.009542     0.000483     0.000000     0.008028

   141    11  H  1s        0.100698    -0.263102    -0.000079     0.126694
   142    11  H  2s        0.027059    -0.095281    -0.000029     0.054817
   143    11  H  2px      -0.003909     0.001979     0.000001     0.000706
   144    11  H  2py      -0.005378    -0.005345    -0.000002     0.003482
   145    11  H  2pz       0.000000    -0.000002     0.008068     0.000000

   146    12  H  1s        0.100839     0.262523     0.000077    -0.126320
   147    12  H  2s        0.026739     0.094820     0.000028    -0.054748
   148    12  H  2px      -0.004191    -0.001626    -0.000000    -0.000938
   149    12  H  2py       0.005168    -0.005425    -0.000002     0.003443
   150    12  H  2pz       0.000000    -0.000002     0.008077     0.000000

   151    13  H  1s       -0.100612    -0.263126    -0.000079    -0.126694
   152    13  H  2s       -0.027026    -0.095286    -0.000028    -0.054818
   153    13  H  2px      -0.003908    -0.001980    -0.000001     0.000706
   154    13  H  2py      -0.005380     0.005343     0.000002     0.003482
   155    13  H  2pz      -0.000000     0.000002    -0.008068    -0.000000

   156    14  H  1s       -0.100927     0.262499     0.000078     0.126320
   157    14  H  2s       -0.026772     0.094813     0.000028     0.054749
   158    14  H  2px      -0.004192     0.001624     0.000000    -0.000938
   159    14  H  2py       0.005166     0.005427     0.000002     0.003442
   160    14  H  2pz      -0.000000     0.000002    -0.008077    -0.000000

                             21           22           23           24
                          -0.287071    -0.273652    -0.253691    -0.244165

                           1.000000     1.000000     1.000000     1.000000

     1     1  C  2s        0.000120    -0.000001     0.000000    -0.000000
     2     1  C  3s       -0.001287     0.000001    -0.000000    -0.000000
     3     1  C  3px       0.006007    -0.000000     0.000000     0.000000
     4     1  C  3py      -0.227856     0.000000    -0.000001     0.000000
     5     1  C  3pz      -0.000000     0.397644    -0.000057    -0.000196
     6     1  C  4px       0.000696     0.000001     0.000000    -0.000000
     7     1  C  4py      -0.009978     0.000000    -0.000001    -0.000000
     8     1  C  4pz      -0.000000     0.031472    -0.000119     0.000038
     9     1  C  3dx2      0.000766     0.000000    -0.000000     0.000000
    10     1  C  3dxy     -0.024087     0.000000    -0.000000     0.000000
    11     1  C  3dxz      0.000000    -0.011920    -0.000565     0.000451
    12     1  C  3dy2     -0.000774     0.000000     0.000000    -0.000000
    13     1  C  3dyz     -0.000000    -0.000337     0.020118    -0.016157
    14     1  C  3dz2      0.000007    -0.000000    -0.000000     0.000000

    15     2  C  2s        0.000127     0.000001     0.000000     0.000000
    16     2  C  3s       -0.001276    -0.000001    -0.000000     0.000000
    17     2  C  3px      -0.006010    -0.000001    -0.000000    -0.000000
    18     2  C  3py       0.227856    -0.000000     0.000000    -0.000000
    19     2  C  3pz      -0.000000     0.397644     0.000071    -0.000178
    20     2  C  4px      -0.000711     0.000001    -0.000000    -0.000000
    21     2  C  4py       0.009978     0.000000     0.000001    -0.000000
    22     2  C  4pz       0.000000     0.031472     0.000120     0.000036
    23     2  C  3dx2      0.000768    -0.000000    -0.000000    -0.000000
    24     2  C  3dxy     -0.024087     0.000000    -0.000000     0.000000
    25     2  C  3dxz     -0.000000     0.011920    -0.000566    -0.000454
    26     2  C  3dy2     -0.000775     0.000000     0.000000     0.000000
    27     2  C  3dyz     -0.000000     0.000336     0.020118     0.016157
    28     2  C  3dz2      0.000007     0.000000     0.000000     0.000000

    29     3  S  3s       -0.118954    -0.000000     0.000000    -0.000000
    30     3  S  4s        0.115533     0.000000    -0.000001     0.000000
    31     3  S  4px       0.039967     0.000001    -0.000000     0.000000
    32     3  S  4py      -0.454949    -0.000000     0.000000     0.000001
    33     3  S  4pz      -0.000001    -0.004147    -0.465555    -0.476154
    34     3  S  5px       0.015507     0.000000     0.000000     0.000000
    35     3  S  5py      -0.062575     0.000000     0.000000    -0.000000
    36     3  S  5pz      -0.000000    -0.000380    -0.006756    -0.015654
    37     3  S  3dx2     -0.005007    -0.000000     0.000000    -0.000000
    38     3  S  3dxy      0.004157     0.000000    -0.000000     0.000000
    39     3  S  3dxz      0.000000     0.038266     0.007897     0.014378
    40     3  S  3dy2     -0.003321     0.000000    -0.000000     0.000000
    41     3  S  3dyz     -0.000000     0.007532    -0.011607    -0.011923
    42     3  S  3dz2      0.008327     0.000000    -0.000000    -0.000000

    43     4  C  2s        0.092266    -0.000000    -0.000000    -0.000000
    44     4  C  3s       -0.126537    -0.000000     0.000000     0.000000
    45     4  C  3px      -0.137552    -0.000001     0.000000    -0.000000
    46     4  C  3py       0.014251     0.000000     0.000000     0.000000
    47     4  C  3pz      -0.000000    -0.367296    -0.138354    -0.151535
    48     4  C  4px       0.010316    -0.000000    -0.000000     0.000000
    49     4  C  4py       0.062440     0.000000    -0.000000    -0.000000
    50     4  C  4pz       0.000000    -0.029862     0.005395     0.016754
    51     4  C  3dx2     -0.006732    -0.000000    -0.000000     0.000000
    52     4  C  3dxy      0.005209     0.000000    -0.000000     0.000000
    53     4  C  3dxz     -0.000000    -0.003681    -0.010120    -0.010725
    54     4  C  3dy2      0.006436     0.000000    -0.000000    -0.000000
    55     4  C  3dyz      0.000000    -0.009419     0.012165     0.012998
    56     4  C  3dz2      0.000295    -0.000000     0.000000     0.000000

    57     5  C  2s       -0.092310     0.000001    -0.000000    -0.000000
    58     5  C  3s        0.126601     0.000000    -0.000000    -0.000000
    59     5  C  3px       0.136599    -0.000000    -0.000000    -0.000000
    60     5  C  3py       0.021521    -0.000000    -0.000000    -0.000000
    61     5  C  3pz       0.000000    -0.367190     0.138003     0.151546
    62     5  C  4px      -0.013521     0.000000     0.000000    -0.000000
    63     5  C  4py       0.061321     0.000000    -0.000000    -0.000000
    64     5  C  4pz       0.000000    -0.029981    -0.005360    -0.016695
    65     5  C  3dx2      0.006352    -0.000000     0.000000    -0.000000
    66     5  C  3dxy      0.006447     0.000000     0.000000     0.000000
    67     5  C  3dxz     -0.000000    -0.004205     0.009431     0.009991
    68     5  C  3dy2     -0.006056    -0.000000    -0.000000     0.000000
    69     5  C  3dyz      0.000000     0.009207     0.012715     0.013571
    70     5  C  3dz2     -0.000296     0.000000    -0.000000    -0.000000

    71     6  S  3s        0.118428    -0.000000    -0.000000    -0.000000
    72     6  S  4s       -0.114548     0.000000     0.000001    -0.000000
    73     6  S  4px      -0.014534    -0.000000     0.000001     0.000000
    74     6  S  4py      -0.455861    -0.000000     0.000000     0.000001
    75     6  S  4pz       0.000000    -0.003992     0.465734     0.476252
    76     6  S  5px      -0.012479    -0.000000    -0.000000     0.000000
    77     6  S  5py      -0.061955    -0.000000     0.000000     0.000000
    78     6  S  5pz       0.000000    -0.000325     0.006562     0.015491
    79     6  S  3dx2      0.004746    -0.000000    -0.000000    -0.000000
    80     6  S  3dxy      0.004304     0.000000    -0.000000    -0.000000
    81     6  S  3dxz     -0.000000     0.038623    -0.007213    -0.013707
    82     6  S  3dy2      0.003572     0.000000     0.000000    -0.000000
    83     6  S  3dyz     -0.000000    -0.005401    -0.012030    -0.012687
    84     6  S  3dz2     -0.008318    -0.000000     0.000000     0.000000

    85     7  S  3s        0.118444     0.000000     0.000000    -0.000000
    86     7  S  4s       -0.114562     0.000000     0.000001     0.000000
    87     7  S  4px       0.014571     0.000000    -0.000001     0.000000
    88     7  S  4py       0.455881     0.000000     0.000001    -0.000001
    89     7  S  4pz       0.000001    -0.003987    -0.465730     0.476234
    90     7  S  5px       0.012489     0.000000     0.000000    -0.000000
    91     7  S  5py       0.061961    -0.000000    -0.000000    -0.000000
    92     7  S  5pz       0.000000    -0.000326    -0.006561     0.015491
    93     7  S  3dx2      0.004747    -0.000000     0.000000    -0.000000
    94     7  S  3dxy      0.004305     0.000000    -0.000000    -0.000000
    95     7  S  3dxz      0.000000    -0.038623    -0.007213     0.013711
    96     7  S  3dy2      0.003572    -0.000000     0.000000    -0.000000
    97     7  S  3dyz      0.000000     0.005403    -0.012029     0.012686
    98     7  S  3dz2     -0.008319     0.000000    -0.000000     0.000000

    99     8  C  2s       -0.092310     0.000000    -0.000000     0.000000
   100     8  C  3s        0.126609     0.000000    -0.000000    -0.000000
   101     8  C  3px      -0.136605    -0.000000    -0.000000     0.000000
   102     8  C  3py      -0.021529     0.000000     0.000000    -0.000000
   103     8  C  3pz       0.000001    -0.367190    -0.138004     0.151572
   104     8  C  4px       0.013518     0.000000    -0.000000     0.000000
[...]

   146    12  H  1s       -1.205117    -1.189442
   147    12  H  2s        0.545848     0.597133
   148    12  H  2px       0.756055     0.755287
   149    12  H  2py       0.236274     0.236007
   150    12  H  2pz       0.000000     0.000000

   151    13  H  1s       -1.206196     1.190087
   152    13  H  2s        0.547062    -0.597547
   153    13  H  2px      -0.768952     0.767804
   154    13  H  2py       0.194595    -0.194212
   155    13  H  2pz      -0.000002     0.000002

   156    14  H  1s        1.205324    -1.189244
   157    14  H  2s       -0.545957     0.597003
   158    14  H  2px       0.756169    -0.755138
   159    14  H  2py       0.236372    -0.236019
   160    14  H  2pz      -0.000002     0.000002


  Fermi energy:                -0.142256

  HOMO-LUMO gap:                0.076852 =   2.09 eV


  Integrated absolute spin density  :                               0.0000000000

 *** WARNING in s_square_methods.F:98 :: Found non-uniform occupation ***


 *** WARNING in s_square_methods.F:100 :: Found non-uniform occupation ***

  Ideal and single determinant S**2 :                    0.000000       0.000000
  
  Eigenvalues of the occupied subspace spin            1
 ---------------------------------------------
      -0.81801225      -0.79489766      -0.71629762      -0.70526402
      -0.69203798      -0.65235340      -0.58179281      -0.53361837
      -0.50473815      -0.47727030      -0.46034050      -0.43318411
      -0.38698794      -0.37962881      -0.36235044      -0.35753800
      -0.34237835      -0.33263369      -0.33257676      -0.30770880
      -0.28707078      -0.27365225      -0.25369058      -0.24416518
      -0.20738705      -0.14225625
 Fermi Energy [eV] :   -3.870989
  
  Eigenvalues of the occupied subspace spin            2
 ---------------------------------------------
      -0.81801225      -0.79489766      -0.71629762      -0.70526402
      -0.69203798      -0.65235340      -0.58179281      -0.53361837
      -0.50473815      -0.47727030      -0.46034050      -0.43318411
      -0.38698794      -0.37962881      -0.36235044      -0.35753800
      -0.34237835      -0.33263369      -0.33257676      -0.30770880
      -0.28707078      -0.27365225      -0.25369058      -0.24416518
      -0.20738705      -0.14225625
 Fermi Energy [eV] :   -3.870989
  
  Lowest eigenvalues of the unoccupied subspace spin            1
 ---------------------------------------------
      -0.06540437      -0.04180130      -0.03146940      -0.02405057
      -0.02223151      -0.01499855
  
  Lowest eigenvalues of the unoccupied subspace spin            2
 ---------------------------------------------
      -0.06540437      -0.04180130      -0.03146940      -0.02405057
      -0.02223151      -0.01499855

 ENERGY| Total FORCE_EVAL ( QS ) energy (a.u.):              -77.173963346957763


 -------------------------------------------------------------------------------
 -                                                                             -
 -                                DBCSR STATISTICS                             -
 -                                                                             -
 -------------------------------------------------------------------------------
 COUNTER                                    TOTAL       BLAS       SMM       ACC
 flops     5 x    22 x     5                 8800     100.0%      0.0%      0.0%
 flops     5 x    32 x     5                51200     100.0%      0.0%      0.0%
 flops     5 x    22 x    13               114400     100.0%      0.0%      0.0%
 flops    13 x    22 x     5               114400     100.0%      0.0%      0.0%
 flops     5 x     5 x    54               453600     100.0%      0.0%      0.0%
 flops     5 x    32 x    13               665600     100.0%      0.0%      0.0%
 flops    13 x    32 x     5               665600     100.0%      0.0%      0.0%
 flops    13 x    22 x    13               743600     100.0%      0.0%      0.0%
 flops     5 x     5 x    32               806400     100.0%      0.0%      0.0%
 flops     5 x    13 x    54              3931200     100.0%      0.0%      0.0%
 flops    13 x     5 x    54              3931200     100.0%      0.0%      0.0%
 flops    13 x    32 x    13              4326400     100.0%      0.0%      0.0%
 flops     5 x    13 x    32              6988800     100.0%      0.0%      0.0%
 flops    13 x     5 x    32              6988800     100.0%      0.0%      0.0%
 flops    13 x    13 x    54             28108080     100.0%      0.0%      0.0%
 flops    13 x    13 x    32             49969920     100.0%      0.0%      0.0%
 flops inhomo. stacks                           0       0.0%      0.0%      0.0%
 flops total                       107.868000E+06     100.0%      0.0%      0.0%
 flops max/rank                     16.547600E+06     100.0%      0.0%      0.0%
 matmuls inhomo. stacks                         0       0.0%      0.0%      0.0%
 matmuls total                              12252     100.0%      0.0%      0.0%
 number of processed stacks                  2848     100.0%      0.0%      0.0%
 average stack size                                     4.3       0.0       0.0
 marketing flops                    39.510000E+06
 -------------------------------------------------------------------------------
 # multiplications                             29
 max memory usage/rank             410.296320E+06
 # max total images/rank                        2
 # max 3D layers                                1
 # MPI messages exchanged                    2088
 MPI messages size (bytes):
  total size                        31.315200E+06
  min size                           7.936000E+03
  max size                          32.400000E+03
  average size                      14.997701E+03
 MPI breakdown and total messages size (bytes):
             size <=      128                   0                        0
       128 < size <=     8192                  18                   142848
      8192 < size <=    32768                2070                 31172352
     32768 < size <=   131072                   0                        0
    131072 < size <=  4194304                   0                        0
   4194304 < size <= 16777216                   0                        0
  16777216 < size                               0                        0
 -------------------------------------------------------------------------------

 *** WARNING in dbcsr/mm/dbcsr_mm.F:268 :: Using a non-square number of ***
 *** MPI ranks might lead to poor performance.                          ***
 *** Used ranks: 8                                                      ***
 *** Suggested: 9 16                                                    ***

 -------------------------------------------------------------------------------

 MEMORY| Estimated peak process memory [MiB]                                 392

 -------------------------------------------------------------------------------
 -                                                                             -
 -                         MESSAGE PASSING PERFORMANCE                         -
 -                                                                             -
 -------------------------------------------------------------------------------

 ROUTINE             CALLS      AVE VOLUME [Bytes]
 MP_Group               62
 MP_Bcast              175                3266557.
 MP_Allreduce          641                   1609.
 MP_Sync                32
 MP_Alltoall          1794                5521019.
 MP_ISendRecv         1722                 243072.
 MP_Wait              3778
 MP_comm_split          28
 MP_ISend             1111                 775460.
 MP_IRecv             1111                 774934.
 MP_Recv                 8                  38400.
 MP_Memory            3250
 MP_Write_All           24                  50460.
 -------------------------------------------------------------------------------


 -------------------------------------------------------------------------------
 -                                                                             -
 -                           R E F E R E N C E S                               -
 -                                                                             -
 -------------------------------------------------------------------------------
 
 CP2K version 6.1, the CP2K developers group (2018).
 CP2K is freely available from https://www.cp2k.org/ .

 Schuett, Ole; Messmer, Peter; Hutter, Juerg; VandeVondele, Joost. 
 Electronic Structure Calculations on Graphics Processing Units, John Wiley & Sons, Ltd, 173-190 (2016). 
 GPU-Accelerated Sparse Matrix-Matrix Multiplication for Linear Scaling Density Functional Theory.
 http://dx.doi.org/10.1002/9781118670712.ch8


 Borstnik, U; VandeVondele, J; Weber, V; Hutter, J. 
 PARALLEL COMPUTING, 40 (5-6), 47-58 (2014). 
 Sparse matrix multiplication: The distributed block-compressed sparse
 row library.
 http://dx.doi.org/10.1016/j.parco.2014.03.012


 Hutter, J; Iannuzzi, M; Schiffmann, F; VandeVondele, J. 
 WILEY INTERDISCIPLINARY REVIEWS-COMPUTATIONAL MOLECULAR SCIENCE, 4 (1), 15-25 (2014). 
 CP2K: atomistic simulations of condensed matter systems.
 http://dx.doi.org/10.1002/wcms.1159


 Krack, M. 
 THEORETICAL CHEMISTRY ACCOUNTS, 114 (1-3), 145-152 (2005). 
 Pseudopotentials for H to Kr optimized for gradient-corrected
 exchange-correlation functionals.
 http://dx.doi.org/10.1007/s00214-005-0655-y


 VandeVondele, J; Krack, M; Mohamed, F; Parrinello, M; Chassaing, T;
 Hutter, J. COMPUTER PHYSICS COMMUNICATIONS, 167 (2), 103-128 (2005). 
 QUICKSTEP: Fast and accurate density functional calculations using a
 mixed Gaussian and plane waves approach.
 http://dx.doi.org/10.1016/j.cpc.2004.12.014


 Frigo, M; Johnson, SG. 
 PROCEEDINGS OF THE IEEE, 93 (2), 216-231 (2005). 
 The design and implementation of FFTW3.
 http://dx.doi.org/10.1109/JPROC.2004.840301


 Martyna, GJ; Tuckerman, ME. 
 JOURNAL OF CHEMICAL PHYSICS, 110 (6), 2810-2821 (1999). 
 A reciprocal space based method for treating long range interactions in
 ab initio and force-field-based calculations in clusters.
 http://dx.doi.org/10.1063/1.477923


 Hartwigsen, C; Goedecker, S; Hutter, J. 
 PHYSICAL REVIEW B, 58 (7), 3641-3662 (1998). 
 Relativistic separable dual-space Gaussian pseudopotentials from H to Rn.
 http://dx.doi.org/10.1103/PhysRevB.58.3641


 Lippert, G; Hutter, J; Parrinello, M. 
 MOLECULAR PHYSICS, 92 (3), 477-487 (1997). 
 A hybrid Gaussian and plane wave density functional scheme.
 http://dx.doi.org/10.1080/002689797170220


 Perdew, JP; Burke, K; Ernzerhof, M. 
 PHYSICAL REVIEW LETTERS, 77 (18), 3865-3868 (1996). 
 Generalized gradient approximation made simple.
 http://dx.doi.org/10.1103/PhysRevLett.77.3865


 Goedecker, S; Teter, M; Hutter, J. 
 PHYSICAL REVIEW B, 54 (3), 1703-1710 (1996). 
 Separable dual-space Gaussian pseudopotentials.
 http://dx.doi.org/10.1103/PhysRevB.54.1703


 -------------------------------------------------------------------------------
 -                                                                             -
 -                                T I M I N G                                  -
 -                                                                             -
 -------------------------------------------------------------------------------
 SUBROUTINE                       CALLS  ASD         SELF TIME        TOTAL TIME
                                MAXIMUM       AVERAGE  MAXIMUM  AVERAGE  MAXIMUM
 CP2K                                 1  1.0    0.010    0.012   47.280   47.280
 qs_energies                          1  2.0    0.000    0.000   46.369   46.369
 scf_env_do_scf                       1  3.0    0.000    0.000   39.049   39.049
 scf_env_do_scf_inner_loop           14  4.0    0.001    0.002   39.049   39.049
 pw_transfer                        622  9.0    0.057    0.065   31.203   33.459
 fft_wrap_pw1pw2                    594 10.0    0.009    0.011   31.027   33.301
 fft_wrap_pw1pw2_230                347 11.3    2.115    2.537   29.606   31.526
 qs_ks_update_qs_env                 14  5.0    0.000    0.000   30.795   30.797
 rebuild_ks_matrix                   14  6.0    0.000    0.000   30.793   30.795
 qs_ks_build_kohn_sham_matrix        14  7.0    0.003    0.003   30.793   30.794
 fft3d_ps                           594 12.0   11.892   12.403   23.677   27.260
 qs_vxc_create                       14  8.0    0.001    0.001   23.289   23.441
 xc_vxc_pw_create                    14  9.0    0.257    0.303   23.288   23.440
 xc_rho_set_and_dset_create          14 10.0    0.143    0.154   11.643   12.955
 mp_alltoall_z22v                   594 14.0    6.600   11.343    6.600   11.343
 yz_to_x                            330 12.2    1.611    1.632    5.533    8.998
 qs_rho_update_rho                   15  5.0    0.000    0.000    8.156    8.156
 calculate_rho_elec                  30  6.0    0.526    0.665    8.155    8.156
 density_rs2pw                       30  7.0    0.003    0.003    7.170    7.212
 x_to_yz                            264 13.9    3.554    4.187    6.232    6.975
 scf_post_calculation_gpw             1  3.0    0.000    0.000    6.617    6.617
 calculate_wavefunction              24  5.0    0.063    0.076    6.086    6.216
 sum_up_and_integrate                14  8.0    0.073    0.093    5.269    5.271
 integrate_v_rspace                  28  9.0    0.594    0.696    5.197    5.217
 rs_pw_transfer                     329  8.4    0.007    0.008    4.917    5.127
 xc_functional_eval                  14 11.0    0.000    0.000    3.228    4.554
 pbe_lsd_eval                        14 12.0    3.228    4.553    3.228    4.553
 potential_pw2rs                     28 10.0    0.005    0.006    4.464    4.484
 pw_gather_p                        330 11.2    2.724    3.269    2.724    3.269
 qs_scf_post_occ_cubes                2  4.0    0.070    0.138    3.258    3.258
 qs_scf_post_unocc_cubes              2  4.0    0.069    0.132    3.257    3.257
 pw_scatter_p                       264 12.9    2.434    2.741    2.434    2.741
 rs_pw_transfer_RS2PW_230            55  8.1    1.496    1.728    2.449    2.586
 pw_derive                          168 10.5    1.290    1.624    1.290    1.624
 mp_waitany                         415 10.4    1.194    1.535    1.194    1.535
 rs_pw_transfer_PW2RS_230            28 12.0    0.801    0.902    1.413    1.450
 fft_wrap_pw1pw2_80                  82 10.4    0.046    0.050    1.023    1.315
 mp_waitall_1                      3363 11.0    0.751    1.115    0.751    1.115
 pw_copy                            267 10.7    0.687    0.856    0.687    0.856
 pw_axpy                            414  8.4    0.702    0.810    0.702    0.810
 qs_init_subsys                       1  2.0    0.001    0.001    0.773    0.773
 qs_env_setup                         1  3.0    0.000    0.000    0.770    0.770
 qs_env_rebuild_pw_env                2  3.5    0.000    0.000    0.769    0.770
 pw_env_rebuild                       1  5.0    0.000    0.000    0.769    0.770
 pw_poisson_solve                    14  8.0    0.250    0.281    0.765    0.765
 rs_grid_zero                       245  7.3    0.639    0.761    0.639    0.761
 pw_grid_setup                        5  6.0    0.000    0.000    0.751    0.751
 pw_grid_setup_internal               5  7.0    0.023    0.029    0.751    0.751
 rs_pw_transfer_RS2PW_80             54  8.1    0.188    0.236    0.573    0.729
 mp_sum_d                           623  3.6    0.402    0.715    0.402    0.715
 qs_scf_new_mos                      14  5.0    0.000    0.001    0.641    0.644
 pw_grid_sort                         5  8.0    0.231    0.273    0.495    0.624
 init_scf_run                         1  3.0    0.000    0.000    0.557    0.557
 scf_env_initial_rho_setup            1  4.0    0.000    0.000    0.555    0.555
 rs_pw_transfer_PW2RS_80             28 12.0    0.142    0.161    0.336    0.369
 eigensolver                         28  6.0    0.001    0.001    0.361    0.362
 sort_shells                          5  9.0    0.265    0.351    0.265    0.351
 pw_poisson_rebuild                  14  9.0    0.003    0.004    0.316    0.340
 MTin_create_screen_fn                1 10.0    0.012    0.015    0.313    0.336
 cp_fm_syevd                         28  7.0    0.000    0.000    0.308    0.309
 mp_alltoall_d11v                   566  9.3    0.169    0.307    0.169    0.307
 rs_distribute_matrix                58  8.4    0.003    0.003    0.170    0.307
 cp_fm_redistribute_end              28  8.0    0.153    0.303    0.154    0.303
 cp_fm_syevd_base                    28  8.0    0.149    0.298    0.149    0.298
 pw_to_cube                          24  5.0    0.209    0.265    0.290    0.291
 pw_grid_remap                        5  8.0    0.007    0.012    0.143    0.260
 mp_sum_im3                           5  9.0    0.135    0.255    0.135    0.255
 pw_zero                             55  7.2    0.193    0.246    0.193    0.246
 fft_wrap_pw1pw2_30                  82 10.4    0.009    0.012    0.158    0.228
 fft_wrap_pw1pw2_450                  1 13.0    0.010    0.015    0.206    0.213
 calculate_dm_sparse                 28  6.0    0.000    0.001    0.199    0.202
 cp_dbcsr_plus_fm_fm_t_native        28  7.0    0.001    0.001    0.198    0.201
 dbcsr_multiply_generic              29  8.0    0.004    0.005    0.168    0.172
 qs_energies_init_hamiltonians        1  3.0    0.000    0.000    0.146    0.146
 qs_env_update_s_mstruct              1  4.0    0.000    0.000    0.143    0.144
 calculate_rho_core                   1  5.0    0.003    0.004    0.137    0.141
 mp_file_set_view_chv                24  6.0    0.074    0.138    0.074    0.138
 mp_isend_dv                        433 11.2    0.109    0.124    0.109    0.124
 create_qs_kind_set                   1  2.0    0.000    0.000    0.120    0.121
 read_qs_kind                         3  3.0    0.049    0.053    0.120    0.121
 mt0din                               1 11.0    0.089    0.106    0.089    0.106
 rs_pw_transfer_RS2PW_30             54  8.1    0.029    0.035    0.076    0.104
 write_available_results              1  4.0    0.000    0.000    0.101    0.101
 write_mo_dependent_results           1  5.0    0.015    0.093    0.101    0.101
 make_m2s                            58  9.0    0.003    0.003    0.096    0.098
 pw_grid_assign                       5  8.0    0.071    0.083    0.081    0.084
 parser_read_line                  8639  4.0    0.027    0.031    0.071    0.075
 cp_fm_get_submatrix                  2  6.0    0.000    0.000    0.053    0.060
 mp_sum_dm                            2  7.0    0.053    0.060    0.053    0.060
 rs_pw_transfer_PW2RS_30             28 12.0    0.017    0.019    0.040    0.058
 copy_dbcsr_to_fm                    56  6.5    0.002    0.002    0.056    0.058
 dbcsr_complete_redistribute        113  8.2    0.015    0.018    0.052    0.055
 qs_diis_b_step                      13  6.0    0.001    0.001    0.052    0.053
 multiply_cannon                     29  9.0    0.005    0.007    0.049    0.052
 cp_fm_cholesky_restore              84  7.0    0.048    0.052    0.048    0.052
 parser_read_line_low                13  5.0    0.009    0.016    0.044    0.051
 -------------------------------------------------------------------------------

 The number of warnings for this run is : 3
 
 -------------------------------------------------------------------------------
  **** **** ******  **  PROGRAM ENDED AT                 2021-03-18 08:10:09.047
 ***** ** ***  *** **   PROGRAM RAN ON                     scutum.phys.ucl.ac.uk
 **    ****   ******    PROGRAM RAN BY                                  ogziogos
 ***** **    ** ** **   PROGRAM PROCESS ID                                  3098
  **** **  *******  **  PROGRAM STOPPED IN       /scratch/ogziogos/work/cp2k/TTF
